                              Psi4 1.0.54 Driver

  ==> Input File <==

--------------------------------------------------------------------------
#########################################################
#   Example from the psi4 homepage:                     #
#   http://psicode.org/psi4manual/master/tutorial.html  #
##########################################################

#! Optimization followed by frequencies H2O HF/cc-pVDZ

memory 250 mb

molecule h2o {
  O
  H 1 0.96
  H 1 0.96 2 104.5
}

set basis cc-pVDZ
optimize('scf')
scf_e, scf_wfn = frequencies('scf', return_wfn=True, dertype=1)
--------------------------------------------------------------------------

    Molecular point group: c2v
  Charge       = 0
  Multiplicity = 1
  Basis Set: CC-PVDZ
  Basis Set:
  @DF-RHF Final Energy:   -76.02663273490815
    Total Energy =                        -76.0266327349081337
    Molecular point group: c2v
  Basis Set: CC-PVDZ
  Basis Set:
  Basis Set: CC-PVDZ
  Basis Set:
  @DF-RHF Final Energy:   -76.02702266601854
    Total Energy =                        -76.0270226660185529
  Basis Set: CC-PVDZ
  Basis Set:
  Basis Set: CC-PVDZ
  Basis Set:
  @DF-RHF Final Energy:   -76.02703272937396
    Total Energy =                        -76.0270327293739854
  Basis Set: CC-PVDZ
  Basis Set:
  **** Optimization is complete! (in 3 steps) ****
    Final optimized geometry and variables:
  Basis Set: CC-PVDZ
  Basis Set:
  @DF-RHF Final Energy:   -76.02702929368968
    Total Energy =                        -76.0270292936896794
  Basis Set: CC-PVDZ
  Basis Set:
  @DF-RHF Final Energy:   -76.02702864487458
    Total Energy =                        -76.0270286448746049
  Basis Set: CC-PVDZ
  Basis Set:
  @DF-RHF Final Energy:   -76.02702649810522
    Total Energy =                        -76.0270264981052293
  Basis Set: CC-PVDZ
  Basis Set:
  Basis Set: CC-PVDZ
  Basis Set:
  @DF-RHF Final Energy:   -76.02702749017492
    Total Energy =                        -76.0270274901749445
  Basis Set: CC-PVDZ
  Basis Set:
  Basis Set: CC-PVDZ
  Basis Set:
  @DF-RHF Final Energy:   -76.02702433651599
    Total Energy =                        -76.0270243365160070
  Basis Set: CC-PVDZ
  Basis Set:
    Molecular point group: c2v
  Charge       = 0
  Multiplicity = 1
  Basis Set: CC-PVDZ
  Basis Set:

    Orbital Energies (a.u.)
    -----------------------

    Doubly Occupied:

       1A1   -20.548408     2A1    -1.342234     1B2    -0.705525
       3A1    -0.568294     1B1    -0.493901

  @DF-RHF Final Energy:   -76.02703272937400

   => Energetics <=

    Nuclear Repulsion Energy =              9.3006650646222813
    One-Electron Energy =                -123.3386693896471229
    Two-Electron Energy =                  38.0109715956508296
    DFT Exchange-Correlation Energy =       0.0000000000000000
    Empirical Dispersion Energy =           0.0000000000000000
    PCM Polarization Energy =               0.0000000000000000
    EFP Energy =                            0.0000000000000000
    Total Energy =                        -76.0270327293740138
    Molecular point group: c2v

    Geometry (in Angstrom), charge = 0, multiplicity = 1:

       Center              X                  Y                   Z               Mass
    ------------   -----------------  -----------------  -----------------  -----------------
           O          0.000000000000     0.000000000000    -0.064716289330    15.994914619560
           H          0.000000000000    -0.749045996196     0.513547237563     1.007825032070
           H          0.000000000000     0.749045996196     0.513547237563     1.007825032070

  Basis Set: CC-PVDZ
  Basis Set:

  -Total Gradient:
     Atom            X                  Y                   Z
    ------   -----------------  -----------------  -----------------
       1        0.000000000000     0.000000000000     0.000085865421
       2        0.000000000000    -0.000072678635    -0.000042932710
       3       -0.000000000000     0.000072678635    -0.000042932710

*** Psi4 exiting successfully. Buy a developer a beer!
